[Molden Format]
made by pyscf v[2.2.1]
[Atoms] (AU)
C   1   6    -0.06296595641765    -0.12480092535577     0.18634702679006
C   2   6     0.10030311208550     0.04510835407765     2.87982170651409
C   3   6     2.59030420512047     0.14612406563307     3.92661712659075
C   4   6     4.73137074071489     0.09686691139039     2.46037294356735
C   5   6     4.56522685359030    -0.06679234606220    -0.28044146920461
C   6   6     2.03130251665827    -0.17742999048800    -1.34532036642754
C   7   6    -2.17194483432461     0.11460261278933     4.48604291098031
C   8   6    -3.32901176212277    -2.07745147885100     5.44563352452389
C   9   6    -5.51909765014716    -2.07472195087777     6.95461379185577
O   10   8    -6.72794291426551    -0.17134776579354     7.63821433725924
O   11   8     6.46970656417322    -0.10920832059175    -1.62834579667919
C   12   6    -6.52958766250115    -4.63185822767895     7.85082688363930
H   13   1     2.75318029430458     0.26140595861924     5.94799471471541
H   14   1     6.59275816249657     0.17388414882800     3.27319224591827
H   15   1     1.88072738387530    -0.30480612538015    -3.36831533599331
H   16   1    -1.91807204213381    -0.21611963051313    -0.63589630931947
H   17   1    -2.48530237916618    -3.88102992252719     5.00382085822722
H   18   1    -2.98736765279748     1.93160124662762     4.89817469235623
H   19   1    -6.60700149109135    -4.67670916458671     9.90707293778863
H   20   1    -8.45775438669943    -4.90250550754008     7.18310820885794
H   21   1    -5.39912056989909    -6.22450926897145     7.21462378843289
[GTO]
1 0
 s    6 1.00
             3047.5249  0.0018347001629433
             457.36951    0.01403730124668
             103.94869   0.068842606114048
             29.210155    0.23218442062076
              9.286663    0.46794134155879
              3.163927    0.36231203217765
 s    3 1.00
             7.8682724   -0.11933240861517
             1.8812885   -0.16085421161283
             0.5442493     1.1434564825515
 s    1 1.00
             0.1687144                   1
 p    3 1.00
             7.8682724   0.068999095584993
             1.8812885    0.31642397975315
             0.5442493    0.74430825237435
 p    1 1.00
             0.1687144                   1
 d    1 1.00
                   0.8                   1

2 0
 s    6 1.00
             3047.5249  0.0018347001629433
             457.36951    0.01403730124668
             103.94869   0.068842606114048
             29.210155    0.23218442062076
              9.286663    0.46794134155879
              3.163927    0.36231203217765
 s    3 1.00
             7.8682724   -0.11933240861517
             1.8812885   -0.16085421161283
             0.5442493     1.1434564825515
 s    1 1.00
             0.1687144                   1
 p    3 1.00
             7.8682724   0.068999095584993
             1.8812885    0.31642397975315
             0.5442493    0.74430825237435
 p    1 1.00
             0.1687144                   1
 d    1 1.00
                   0.8                   1

3 0
 s    6 1.00
             3047.5249  0.0018347001629433
             457.36951    0.01403730124668
             103.94869   0.068842606114048
             29.210155    0.23218442062076
              9.286663    0.46794134155879
              3.163927    0.36231203217765
 s    3 1.00
             7.8682724   -0.11933240861517
             1.8812885   -0.16085421161283
             0.5442493     1.1434564825515
 s    1 1.00
             0.1687144                   1
 p    3 1.00
             7.8682724   0.068999095584993
             1.8812885    0.31642397975315
             0.5442493    0.74430825237435
 p    1 1.00
             0.1687144                   1
 d    1 1.00
                   0.8                   1

4 0
 s    6 1.00
             3047.5249  0.0018347001629433
             457.36951    0.01403730124668
             103.94869   0.068842606114048
             29.210155    0.23218442062076
              9.286663    0.46794134155879
              3.163927    0.36231203217765
 s    3 1.00
             7.8682724   -0.11933240861517
             1.8812885   -0.16085421161283
             0.5442493     1.1434564825515
 s    1 1.00
             0.1687144                   1
 p    3 1.00
             7.8682724   0.068999095584993
             1.8812885    0.31642397975315
             0.5442493    0.74430825237435
 p    1 1.00
             0.1687144                   1
 d    1 1.00
                   0.8                   1

5 0
 s    6 1.00
             3047.5249  0.0018347001629433
             457.36951    0.01403730124668
             103.94869   0.068842606114048
             29.210155    0.23218442062076
              9.286663    0.46794134155879
              3.163927    0.36231203217765
 s    3 1.00
             7.8682724   -0.11933240861517
             1.8812885   -0.16085421161283
             0.5442493     1.1434564825515
 s    1 1.00
             0.1687144                   1
 p    3 1.00
             7.8682724   0.068999095584993
             1.8812885    0.31642397975315
             0.5442493    0.74430825237435
 p    1 1.00
             0.1687144                   1
 d    1 1.00
                   0.8                   1

6 0
 s    6 1.00
             3047.5249  0.0018347001629433
             457.36951    0.01403730124668
             103.94869   0.068842606114048
             29.210155    0.23218442062076
              9.286663    0.46794134155879
              3.163927    0.36231203217765
 s    3 1.00
             7.8682724   -0.11933240861517
             1.8812885   -0.16085421161283
             0.5442493     1.1434564825515
 s    1 1.00
             0.1687144                   1
 p    3 1.00
             7.8682724   0.068999095584993
             1.8812885    0.31642397975315
             0.5442493    0.74430825237435
 p    1 1.00
             0.1687144                   1
 d    1 1.00
                   0.8                   1

7 0
 s    6 1.00
             3047.5249  0.0018347001629433
             457.36951    0.01403730124668
             103.94869   0.068842606114048
             29.210155    0.23218442062076
              9.286663    0.46794134155879
              3.163927    0.36231203217765
 s    3 1.00
             7.8682724   -0.11933240861517
             1.8812885   -0.16085421161283
             0.5442493     1.1434564825515
 s    1 1.00
             0.1687144                   1
 p    3 1.00
             7.8682724   0.068999095584993
             1.8812885    0.31642397975315
             0.5442493    0.74430825237435
 p    1 1.00
             0.1687144                   1
 d    1 1.00
                   0.8                   1

8 0
 s    6 1.00
             3047.5249  0.0018347001629433
             457.36951    0.01403730124668
             103.94869   0.068842606114048
             29.210155    0.23218442062076
              9.286663    0.46794134155879
              3.163927    0.36231203217765
 s    3 1.00
             7.8682724   -0.11933240861517
             1.8812885   -0.16085421161283
             0.5442493     1.1434564825515
 s    1 1.00
             0.1687144                   1
 p    3 1.00
             7.8682724   0.068999095584993
             1.8812885    0.31642397975315
             0.5442493    0.74430825237435
 p    1 1.00
             0.1687144                   1
 d    1 1.00
                   0.8                   1

9 0
 s    6 1.00
             3047.5249  0.0018347001629433
             457.36951    0.01403730124668
             103.94869   0.068842606114048
             29.210155    0.23218442062076
              9.286663    0.46794134155879
              3.163927    0.36231203217765
 s    3 1.00
             7.8682724   -0.11933240861517
             1.8812885   -0.16085421161283
             0.5442493     1.1434564825515
 s    1 1.00
             0.1687144                   1
 p    3 1.00
             7.8682724   0.068999095584993
             1.8812885    0.31642397975315
             0.5442493    0.74430825237435
 p    1 1.00
             0.1687144                   1
 d    1 1.00
                   0.8                   1

10 0
 s    6 1.00
             5484.6717   0.001831099805527
             825.23495   0.013950098518422
             188.04696    0.06844509273075
               52.9645    0.23271427528445
              16.89757    0.47019295006289
             5.7996353    0.35852086192309
 s    3 1.00
             15.539616   -0.11077750382508
             3.5999336   -0.14802630511126
             1.0137618     1.1307670390447
 s    1 1.00
             0.2700058                   1
 p    3 1.00
             15.539616   0.070874299543311
             3.5999336    0.33975279781076
             1.0137618    0.72715859531445
 p    1 1.00
             0.2700058                   1
 d    1 1.00
                   0.8                   1

11 0
 s    6 1.00
             5484.6717   0.001831099805527
             825.23495   0.013950098518422
             188.04696    0.06844509273075
               52.9645    0.23271427528445
              16.89757    0.47019295006289
             5.7996353    0.35852086192309
 s    3 1.00
             15.539616   -0.11077750382508
             3.5999336   -0.14802630511126
             1.0137618     1.1307670390447
 s    1 1.00
             0.2700058                   1
 p    3 1.00
             15.539616   0.070874299543311
             3.5999336    0.33975279781076
             1.0137618    0.72715859531445
 p    1 1.00
             0.2700058                   1
 d    1 1.00
                   0.8                   1

12 0
 s    6 1.00
             3047.5249  0.0018347001629433
             457.36951    0.01403730124668
             103.94869   0.068842606114048
             29.210155    0.23218442062076
              9.286663    0.46794134155879
              3.163927    0.36231203217765
 s    3 1.00
             7.8682724   -0.11933240861517
             1.8812885   -0.16085421161283
             0.5442493     1.1434564825515
 s    1 1.00
             0.1687144                   1
 p    3 1.00
             7.8682724   0.068999095584993
             1.8812885    0.31642397975315
             0.5442493    0.74430825237435
 p    1 1.00
             0.1687144                   1
 d    1 1.00
                   0.8                   1

13 0
 s    3 1.00
             18.731137    0.03349459952309
             2.8253937    0.23472694665786
             0.6401217    0.81375731841339
 s    1 1.00
             0.1612778                   1

14 0
 s    3 1.00
             18.731137    0.03349459952309
             2.8253937    0.23472694665786
             0.6401217    0.81375731841339
 s    1 1.00
             0.1612778                   1

15 0
 s    3 1.00
             18.731137    0.03349459952309
             2.8253937    0.23472694665786
             0.6401217    0.81375731841339
 s    1 1.00
             0.1612778                   1

16 0
 s    3 1.00
             18.731137    0.03349459952309
             2.8253937    0.23472694665786
             0.6401217    0.81375731841339
 s    1 1.00
             0.1612778                   1

17 0
 s    3 1.00
             18.731137    0.03349459952309
             2.8253937    0.23472694665786
             0.6401217    0.81375731841339
 s    1 1.00
             0.1612778                   1

18 0
 s    3 1.00
             18.731137    0.03349459952309
             2.8253937    0.23472694665786
             0.6401217    0.81375731841339
 s    1 1.00
             0.1612778                   1

19 0
 s    3 1.00
             18.731137    0.03349459952309
             2.8253937    0.23472694665786
             0.6401217    0.81375731841339
 s    1 1.00
             0.1612778                   1

20 0
 s    3 1.00
             18.731137    0.03349459952309
             2.8253937    0.23472694665786
             0.6401217    0.81375731841339
 s    1 1.00
             0.1612778                   1

21 0
 s    3 1.00
             18.731137    0.03349459952309
             2.8253937    0.23472694665786
             0.6401217    0.81375731841339
 s    1 1.00
             0.1612778                   1

[5d]
[7f]
[9g]

[MO]
 Sym= A
 Ene=    -20.42333712
 Spin= Alpha
 Occup=    2.00000
   1    9.0281648208023e-07
   2    4.7565509964551e-06
   3    3.0781898529653e-05
   4    -4.425926568733e-06
   5    4.4942042088354e-06
   6    1.4760092172015e-06
   7    0.0001097531555099
   8    -4.6714371697067e-05
   9    -0.00014484886891658
  10    -2.5346891757175e-06
  11    -2.0530875962208e-06
  12    -3.3177104238124e-06
  13    -2.8441134915381e-06
  14    -8.6796798111518e-06
  15    -1.0234692795814e-05
  16    -0.00016136768018719
  17    0.00013740688186105
  18    5.1234287670642e-05
  19    1.9035161955035e-05
  20    -3.7189917536404e-05
  21    8.7687039671464e-05
  22    0.00018554807671877
  23    -8.1127246818583e-05
  24    -8.6851670736002e-06
  25    5.506576440471e-06
  26    1.6724115705467e-05
  27    -1.6072022524127e-05
  28    -2.556798736135e-05
  29    7.3115556770095e-07
  30    3.8370485883331e-06
  31    4.187245295519e-05
  32    -3.5725654216781e-06
  33    3.8952867335305e-06
  34    3.5521639695275e-06
  35    0.00017401891193618
  36    -3.8024958589033e-05
  37    -5.6144832547733e-05
  38    -3.9943779340566e-06
  39    -2.9007215490019e-06
  40    8.3406773936232e-06
  41    -3.2148684959399e-06
  42    -4.554597520464e-07
  43    2.6521631221071e-06
  44    2.1345597295347e-05
  45    -0.00020603613117577
  46    -3.2653433941782e-06
  47    2.729286442674e-06
  48    1.3067757494904e-06
  49    0.00011470762950955
  50    4.8367645661167e-06
  51    -4.5145639928036e-05
  52    -2.6021917318618e-06
  53     2.75104947896e-06
  54    1.4353031477044e-06
  55    -5.2682001432947e-06
  56    -8.7251852384537e-07
  57    -5.3951788924941e-07
  58    -4.6168619316196e-07
  59    3.5343745408109e-05
  60    9.4289445850898e-07
  61    2.4290879510489e-06
  62    -7.0146193256485e-07
  63    -5.8348316639779e-05
  64    -8.3544198935898e-06
  65    4.3047109408967e-05
  66    -3.1901574456495e-07
  67    -1.8525941025578e-06
  68    1.7825988477994e-07
  69    6.8404165996767e-07
  70    -2.5920964240104e-07
  71    2.5536757888776e-06
  72    2.0700214508186e-05
  73    -0.00020033395228443
  74    -2.7640535438499e-06
  75    2.6064885889486e-06
  76    2.3782628112097e-06
  77    8.0214887957192e-05
  78    2.8083171181805e-06
  79    -8.9814918733944e-05
  80    -1.6507379133424e-06
  81    2.3626436094722e-06
  82    -1.6805997031571e-07
  83    -5.3208480868317e-06
  84    -2.31277703751e-06
  85    -1.1607418296463e-05
  86    -0.00012206520308505
  87    0.0034424617918349
  88    -9.7992819921693e-05
  89    -1.780246297781e-05
  90    6.9365809720961e-05
  91    -0.00035052080426942
  92    -0.0016877496265724
  93    0.00036168878184401
  94    -2.4839992079417e-06
  95    4.8402139370514e-06
  96    -1.769863515823e-05
  97    -1.3829698818463e-05
  98    2.5585233901304e-05
  99    2.5141647365252e-05
 100    0.00013964543299099
 101    0.00018891022063592
 102    0.00010136380451446
 103    8.9320739518049e-05
 104    -7.6711779154445e-05
 105    -0.0016377170947285
 106    -0.0046235813996658
 107    0.0014843445338504
 108    -2.6094314130493e-06
 109    7.5928947737374e-06
 110    -0.0001254661647808
 111    -4.133997597791e-05
 112    0.00017529253593978
 113    0.00016944998936031
 114    0.00076612259900825
 115    0.0036435372946809
 116    -4.5008628911308e-05
 117    -3.610745908344e-05
 118    3.3752457861338e-05
 119    -0.0041980231532339
 120    0.0080111457136406
 121    0.0022663932517825
 122    0.00011302929030111
 123    6.115412905682e-05
 124    -0.00022557949681226
 125    9.0657804704512e-05
 126    0.00036270150093299
 127      0.99590017336266
 128     0.023301750203128
 129    -0.015043372664257
 130    0.0009993871740908
 131    -0.0015478988005753
 132    -0.00056664524262388
 133    -0.0025145435534934
 134    0.0037300792335582
 135    0.0014389148834168
 136    6.847223691687e-06
 137    -5.8638825055272e-05
 138    -0.00015333807200655
 139    1.9319657802189e-05
 140    0.00022029529646627
 141    2.2838912507816e-07
 142    3.3550566104686e-07
 143    2.2426229358928e-05
 144    -6.9115216329807e-07
 145    -7.2179954175867e-07
 146    5.9966828110109e-07
 147    1.1972865873139e-06
 148    3.7544042610416e-06
 149    -1.4662242671998e-06
 150    -1.1848761602615e-06
 151    1.0040410759122e-06
 152    1.9746963406636e-07
 153    -2.5710219156246e-06
 154    -6.4288538497228e-07
 155    -3.2304211073912e-05
 156    -0.00044103559959733
 157    0.0030022680377716
 158    0.00012074333504622
 159    -7.1543245401151e-05
 160    -7.7245125429075e-05
 161    0.0011915980086481
 162    4.5289522611868e-06
 163    -0.00082119327192335
 164    5.0307430475588e-05
 165    -0.00017976999944217
 166    -4.3105061370544e-05
 167    0.00021312001125488
 168    8.0921965070666e-05
 169    7.1615001781135e-06
 170    8.4579410904716e-06
 171    2.2116088218977e-06
 172    -2.3983698471294e-05
 173    2.3269014485214e-06
 174    -2.2852422433628e-05
 175    6.9167446295716e-06
 176    7.7937844820309e-06
 177    -0.00030629086978092
 178    -0.0011758604415501
 179    -3.6902468792271e-05
 180    0.0002794654015977
 181    -5.7214513441918e-05
 182    -0.00017007693244809
 183    -5.5671829249233e-05
 184    -0.00017628786983563
 185    -0.00017542071341873
 186    -0.00064379638428598
 Sym= A
 Ene=    -20.29413865
 Spin= Alpha
 Occup=    2.00000
   1    1.1820357329833e-05
   2    1.8980279783342e-05
   3    -0.0046575529061577
   4    -0.00016303701863575
   5    -1.4518171573861e-06
   6    2.4494703462738e-05
   7    -0.0020129533689522
   8    -5.6100939707218e-05
   9    -0.00027244276241973
  10    2.9989743493106e-05
  11    -2.0634726393044e-05
  12    2.3634155960127e-06
  13    -8.2811509737583e-06
  14    -2.230684098804e-06
  15    -2.086642380353e-05
  16    -0.0001848894681357
  17    0.0019253496079279
  18    -8.4228365913416e-05
  19    5.5981461323801e-06
  20    5.9698285010532e-05
  21    0.0020421017726261
  22    -5.0743402926775e-05
  23    -0.001448509958961
  24    2.7868181990833e-05
  25    4.1800117616223e-05
  26    6.6590601483277e-06
  27    1.9240683716245e-05
  28    5.2444529004683e-07
  29    1.1788515550242e-05
  30    1.8828573371127e-05
  31    -0.0046526076651965
  32    -7.7328845504965e-05
  33    7.2808203097323e-06
  34    0.0001454755040219
  35    -0.00041055827875829
  36    0.00010898340979005
  37     0.001987485148699
  38    -2.7741234594691e-05
  39    2.7188091296783e-06
  40    -8.9264559571688e-07
  41    2.5224141872231e-05
  42    6.6744880890304e-07
  43    -4.0452731764098e-05
  44    -0.00040961044550941
  45    0.0052902462588288
  46    4.7377860445186e-05
  47    1.5301074626214e-06
  48    1.6371746431143e-05
  49    -0.0050842126492675
  50    -0.00015095108925849
  51    -0.0010604384923039
  52    -3.4965235668548e-05
  53    0.0002354203803677
  54    1.0136630205339e-05
  55    0.00014787665277799
  56    1.9684895382929e-05
  57    0.00021471567738006
  58    0.0011020206259952
  59    0.0019414302374525
  60    -8.208500444063e-05
  61    2.2601952924928e-06
  62    5.8100574075998e-05
  63    0.0095850108161912
  64    -0.00021932516172149
  65    -0.0067828682215216
  66    4.5289701131601e-05
  67    0.00044410097390255
  68    -6.8938693239963e-07
  69    -0.00023445585677606
  70    1.7083715846571e-05
  71    -4.048391405323e-05
  72    -0.00040977695957816
  73    0.0052930044395033
  74    2.9686090689958e-07
  75    -3.3050774963917e-06
  76    -5.0062255203878e-05
  77    -0.00068326341867219
  78    0.00029558264471903
  79    0.0051438151390017
  80    0.00025264855192161
  81    0.00011872748636264
  82    2.6343029184591e-05
  83    -1.8744999525055e-05
  84    5.9711490729028e-06
  85    -6.1184678273069e-06
  86    -2.0898077638402e-05
  87    0.0012039120531552
  88    1.3487236412715e-05
  89    2.9078333268815e-06
  90    -1.0147492764361e-05
  91    0.00053985526984794
  92    -0.00010731150261396
  93    -0.00037289372018864
  94    -5.5629346007251e-06
  95    -2.791947086922e-05
  96    -3.866875146702e-07
  97    1.0083123290836e-05
  98    -1.18047450066e-06
  99    8.0813195712644e-07
 100    4.7774911647057e-06
 101    -0.00010974731467524
 102    6.0801344602718e-07
 103    -4.5773831456919e-06
 104    -1.115839600063e-07
 105    -6.1607798527887e-05
 106    -2.6216335788461e-05
 107     4.52137429513e-05
 108    -1.0765426785661e-06
 109    3.005020558682e-07
 110    2.3707345125865e-06
 111    -1.9872504860535e-06
 112    -3.4046538404533e-06
 113    -8.3843836987492e-07
 114    -7.3491240707242e-06
 115    -2.1911863784547e-05
 116    -8.6006460544169e-06
 117    -1.3321456048522e-05
 118    6.6642798563789e-06
 119    5.4014093246227e-05
 120    0.00018250367500105
 121    -5.0526859286655e-05
 122    -1.85404014318e-06
 123    -4.7946839825783e-06
 124    2.3932231954594e-06
 125    1.0469187222126e-06
 126    -3.958059411478e-06
 127    4.7271390724914e-07
 128    6.2516364235226e-06
 129    -6.8834387164454e-05
 130    -3.0013730014828e-06
 131    -4.8658518180096e-07
 132    2.0594257784961e-06
 133    -1.8690849922716e-05
 134    7.6062254974292e-06
 135    1.2208593053789e-05
 136    -2.0315255156293e-06
 137    -1.1214341529309e-06
 138    -2.6806273360484e-06
 139    -3.1770429493174e-06
 140    3.1467491360001e-06
 141      0.99588227307875
 142     0.023589334728769
 143    -0.016274274255489
 144    -0.0015676172310798
 145    3.4019943673217e-05
 146    0.0011094399442722
 147    0.0039645705746087
 148    -8.606594000867e-05
 149    -0.0028061175225396
 150    8.3450209109393e-05
 151    0.00022081544485684
 152    1.2410298771535e-05
 153    -1.0467158880692e-05
 154    1.2126864668825e-05
 155    -2.3474899690982e-06
 156    -1.7748450796148e-05
 157    0.00016202958600622
 158    2.7376816372049e-06
 159    5.3552798975072e-06
 160    -2.1859104617428e-06
 161    2.0564856128893e-05
 162    5.6553325651485e-05
 163    -1.9375301473499e-05
 164    -1.4206722433686e-06
 165    -9.0934520361549e-08
 166    -2.2084120486116e-06
 167    -2.7975971440856e-06
 168    2.4908538442685e-06
 169    -4.2742780495218e-06
 170    -0.00026661882963939
 171    0.00019924927667746
 172    0.0016595873489451
 173    0.00019936430507973
 174    0.0016600335346227
 175    -4.2176538841325e-06
 176    -0.00026589719077643
 177     3.74212624321e-06
 178    2.7559409187297e-05
 179    -1.8643341548045e-06
 180    7.3326531785035e-05
 181    -5.3600538175965e-06
 182    -5.4241595404958e-06
 183    -5.5084999712381e-06
 184    -5.8408210979962e-06
 185    -3.4991845531532e-06
 186    -9.3591139813489e-06
 Sym= A
 Ene=    -11.22055125
 Spin= Alpha
 Occup=    2.00000
   1    -1.3368148643712e-06
   2    -1.4504145227452e-06
   3    -4.2740555316639e-05
   4    1.8361187178379e-06
   5    3.8245303785118e-06
   6    -5.3541278486612e-06
   7    9.5976057200387e-05
   8    6.0387980691924e-06
   9    -0.00014486271057467
  10    -6.034357503309e-06
  11    5.9006319151536e-06
  12    5.3279401356449e-06
  13    -1.2032917433853e-06
  14    -3.1032930435316e-07
  15    -3.0041662409989e-05
  16    -0.00022169072812292
  17    0.00085715716159046
  18    3.5088658335307e-05
  19    2.5893313017574e-05
  20    -2.7649234444543e-05
  21    -0.00025482735379612
  22    -4.3382935454311e-05
  23    0.00019546443372258
  24    -4.3498203739521e-07
  25    -1.0513536854614e-05
  26    -1.750336658289e-06
  27    7.4202107245353e-06
  28    2.6813180016811e-06
  29    -1.2190763077492e-06
  30    -7.3768528281471e-07
  31    -5.7128743775837e-05
  32    5.9684793557736e-06
  33    4.3497324094268e-06
  34    -5.3032529167749e-07
  35    0.0001736064938466
  36    1.3463197859334e-05
  37    -3.9479717468506e-05
  38    4.6486550072129e-06
  39    2.474065130246e-06
  40    -1.1579408409718e-06
  41    -6.7742179196999e-06
  42    -5.9423544164953e-06
  43    -1.3884967634027e-07
  44    -2.4071444538928e-08
  45    -7.5430348567684e-05
  46    5.2024736401881e-07
  47    7.3408260111066e-08
  48    3.7489518349504e-06
  49    1.231477890833e-05
  50    -6.7619842118723e-06
  51    -8.4869015521478e-05
  52    -2.4465180213928e-08
  53    4.6797499873478e-07
  54    -2.9061763062461e-09
  55    7.5869707285118e-07
  56    -2.4173218533577e-07
  57    2.3545890094114e-07
  58    1.2904240062552e-06
  59    -9.6910069047962e-05
  60    1.6395606153402e-06
  61    -5.7345182541665e-07
  62    -1.2279244350875e-06
  63    -8.0905792624682e-06
  64    3.3907670331897e-06
  65    3.2942743197791e-06
  66    -8.0776902809456e-07
  67    1.9181715185564e-07
  68    -1.8876948161178e-07
  69    -1.4194749889823e-06
  70    -1.1544274515165e-08
  71    -3.5348979229103e-08
  72    5.4687553216348e-07
  73    -8.028358234255e-05
  74    -3.0829270779353e-06
  75    -3.0364711426401e-07
  76    -1.6973599627304e-06
  77    8.229883392135e-05
  78    2.3848836043157e-07
  79    1.3153095738238e-05
  80    7.5615267394896e-07
  81     2.42434972315e-07
  82    3.6152057821121e-07
  83    6.025433920967e-08
  84    -1.0450122365831e-08
  85    -1.2298690832674e-07
  86    -0.00014547001659275
  87    0.0018351335723688
  88    -1.7323176260967e-05
  89    -3.5424483258358e-05
  90    1.4560614002319e-05
  91    -0.00057155915796882
  92    -0.00090328633103686
  93    0.00046047370946267
  94    -3.8480790502057e-05
  95    -2.5585630500877e-05
  96    -2.5118735695788e-05
  97    -5.1280954147791e-05
  98    2.2172791881888e-05
  99    0.0045223879264016
 100    -0.00050753925409259
 101    0.0050170032879491
 102    0.00029349222546143
 103    0.00011070046635107
 104    -0.00021064051578437
 105    -0.0027633612743758
 106    -0.0031196474452184
 107    0.0021450270519098
 108    5.4214231029446e-05
 109    0.00035772621126784
 110    2.2101418098201e-05
 111    -0.00017677202609284
 112    -1.4178422443594e-05
 113      0.99623032215107
 114     0.024881619089348
 115    -0.012373691517607
 116    -0.0003173932485762
 117    0.00036965706858006
 118    0.00018751908482685
 119    -0.0037510738777662
 120    0.0057759624182324
 121    0.0021312960504135
 122    -0.00049202773497135
 123    -0.0007222508182922
 124    0.00031702233446317
 125    -0.00020313879722936
 126    -0.00063310681852679
 127    -0.00022821927438767
 128    0.00090947141100625
 129    -0.0045368405190396
 130    3.9015245138139e-05
 131    -3.1005715878304e-05
 132    -2.4132781184143e-05
 133    -0.0012095957006836
 134    0.0020000010964272
 135    0.00067619731085697
 136    0.00030479343747804
 137    0.00023700575789931
 138    -0.00018229368732733
 139    0.00029060190421348
 140    0.0003745149113306
 141    -2.4829019717651e-07
 142    -2.7861787234558e-06
 143    2.5304430389978e-05
 144    -3.7795549516558e-07
 145    8.2713898774409e-08
 146    2.0822964707444e-07
 147    -6.6966338724014e-06
 148    -1.1652292267617e-06
 149    5.2818035922766e-06
 150    -8.0135363291354e-07
 151    -1.3221201720195e-06
 152    -2.9230614409698e-07
 153    -6.1883072554834e-07
 154    1.0637163235726e-07
 155    0.0032608976020012
 156    -0.00019886857556405
 157    0.0040519410803993
 158    -2.3108615695448e-05
 159    -3.4675668032146e-05
 160    1.6290478581407e-05
 161    0.0019133889983525
 162    0.00096926852216417
 163    -0.0013804668192399
 164    0.00020018436860744
 165    1.6060638923981e-05
 166    0.00015295094241687
 167    0.00036427670242029
 168    -0.00013995093950258
 169    4.8019253254115e-06
 170    1.7502977254959e-05
 171    5.9107157403871e-06
 172    1.4108915551569e-05
 173    5.7667048495045e-06
 174    1.304603782403e-05
 175    4.9271936483186e-06
 176    1.8042184951857e-05
 177    -0.00035747697413718
 178    -0.00089006640637735
 179    -5.2893671741959e-05
 180    2.7610408883799e-05
 181    -0.00019008015330656
 182    0.00056907466980398
 183    -0.00019156916498907
 184    0.00057765768776744
 185    -0.00024268597237346
 186    -0.00074009770786489
 Sym= A
 Ene=    -11.16094512
 Spin= Alpha
 Occup=    2.00000
   1    -5.7383319169755e-05
   2    -6.732997332797e-05
   3    -0.0029830322020676
   4    0.00013947604207301
   5    -1.0781606744684e-05
   6    -0.00019600194044327
   7    -0.0028856924700304
   8    0.00010435987214172
   9    0.0018432138009624
  10    5.7500601693422e-05
  11    0.00012818811255455
  12    1.1610124998125e-05
  13    -5.5600088485616e-06
  14    1.6948809801585e-05
  15    0.0037762345914542
  16    0.00018173242345925
  17     0.001154846857342
  18    -1.7327010427406e-06
  19    -4.5085322334216e-05
  20    6.0823968294615e-06
  21    0.00026699307187806
  22    -0.00028805387246205
  23    -0.00022278378179389
  24    -2.7014012601704e-06
  25    0.00036270380698347
  26    -6.4054196335179e-05
  27    -0.00027279284837492
  28    8.7965290152426e-05
  29    -5.9316009752063e-05
  30    -7.2925890726955e-05
  31    -0.0029220794936196
  32    0.00023150332620457
  33    -1.1635080130663e-06
  34    -6.6162893098314e-05
  35    -0.0027381564663572
  36    0.00012245586672298
  37    0.0020914984421559
  38    4.7141290308191e-05
  39    0.00013389333873684
  40    -2.7229042585738e-06
  41    3.878770764598e-06
  42    8.0467836305089e-06
  43    -4.6771486782123e-05
  44    -0.00031148140612835
  45    0.0045626489153064
  46    -3.5362561955984e-05
  47    -4.6895644948438e-06
  48    -2.1793774872672e-06
  49    -0.0023816159347718
  50    -4.9941533922995e-06
  51    0.00066633405506919
  52    2.827489210318e-05
  53    -6.7938294866415e-05
  54    4.6865628256724e-06
  55    9.1669818048895e-05
  56    -6.9986046701791e-07
  57    3.9147500499859e-05
  58    0.00013110132669925
  59    -0.0012183432268089
  60    -2.8823213037731e-05
  61    -2.5651269282904e-06
  62    2.0947625107718e-05